# vtk DataFile Version 1.0
unstructured grid
ascii
DATASET UNSTRUCTURED_GRID
points 513 float
0 0 0 
1 0 0 
0 1 0 
1 1 0 
0.05 0 0 
0.1 0 0 
0.15 0 0 
0.2 0 0 
0.25 0 0 
0.3 0 0 
0.35 0 0 
0.4 0 0 
0.45 0 0 
0.5 0 0 
0.55 0 0 
0.6 0 0 
0.65 0 0 
0.7 0 0 
0.75 0 0 
0.8 0 0 
0.85 0 0 
0.9 0 0 
0.95 0 0 
1 0.05 0 
1 0.1 0 
1 0.15 0 
1 0.2 0 
1 0.25 0 
1 0.3 0 
1 0.35 0 
1 0.4 0 
1 0.45 0 
1 0.5 0 
1 0.55 0 
1 0.6 0 
1 0.65 0 
1 0.7 0 
1 0.75 0 
1 0.8 0 
1 0.85 0 
1 0.9 0 
1 0.95 0 
0.95 1 0 
0.9 1 0 
0.85 1 0 
0.8 1 0 
0.75 1 0 
0.7 1 0 
0.65 1 0 
0.6 1 0 
0.55 1 0 
0.5 1 0 
0.45 1 0 
0.4 1 0 
0.35 1 0 
0.3 1 0 
0.25 1 0 
0.2 1 0 
0.15 1 0 
0.1 1 0 
0.05 1 0 
0 0.95 0 
0 0.9 0 
0 0.85 0 
0 0.8 0 
0 0.75 0 
0 0.7 0 
0 0.65 0 
0 0.6 0 
0 0.55 0 
0 0.5 0 
0 0.45 0 
0 0.4 0 
0 0.35 0 
0 0.3 0 
0 0.25 0 
0 0.2 0 
0 0.15 0 
0 0.1 0 
0 0.05 0 
0.475 0.9567 0 
0.050467 0.47719 0 
0.525 0.043301 0 
0.96601 0.52345 0 
0.043301 0.675 0 
0.675 0.9567 0 
0.325 0.043301 0 
0.95613 0.32552 0 
0.325 0.9567 0 
0.042255 0.325 0 
0.96282 0.67427 0 
0.675 0.043301 0 
0.825 0.9567 0 
0.044427 0.82546 0 
0.041882 0.17803 0 
0.827 0.04191 0 
0.175 0.9567 0 
0.95166 0.82976 0 
0.95557 0.17454 0 
0.175 0.043301 0 
0.4272 0.044645 0 
0.95513 0.42254 0 
0.039571 0.5761 0 
0.575 0.9567 0 
0.92307 0.95782 0 
0.045285 0.92041 0 
0.042408 0.074919 0 
0.92307 0.042185 0 
0.425 0.9567 0 
0.45 0.9134 0 
0.4 0.9134 0 
0.425 0.8701 0 
0.475 0.8701 0 
0.45 0.82679 0 
0.5 0.82679 0 
0.475 0.78349 0 
0.525 0.78349 0 
0.5 0.74019 0 
0.45 0.74019 0 
0.475 0.69689 0 
0.525 0.69689 0 
0.5 0.65359 0 
0.55 0.65359 0 
0.525 0.61029 0 
0.475 0.61029 0 
0.5 0.56699 0 
0.55 0.56699 0 
0.525 0.52369 0 
0.475 0.52369 0 
0.5 0.48038 0 
0.45 0.48038 0 
0.55 0.48038 0 
0.475 0.43708 0 
0.425 0.43708 0 
0.4 0.48038 0 
0.375 0.43708 0 
0.45 0.39378 0 
0.35 0.48038 0 
0.325 0.43708 0 
0.3 0.48038 0 
0.275 0.43708 0 
0.3 0.39378 0 
0.325 0.52369 0 
0.275 0.52369 0 
0.3 0.56699 0 
0.25 0.56699 0 
0.275 0.61029 0 
0.25 0.39378 0 
0.275 0.35048 0 
0.575 0.69689 0 
0.6 0.65359 0 
0.625 0.69689 0 
0.65 0.65359 0 
0.675 0.69689 0 
0.7 0.65359 0 
0.725 0.69689 0 
0.75 0.65359 0 
0.725 0.61029 0 
0.5 0.39378 0 
0.475 0.35048 0 
0.525 0.35048 0 
0.5 0.30718 0 
0.55 0.30718 0 
0.525 0.26388 0 
0.475 0.26388 0 
0.575 0.26388 0 
0.6 0.30718 0 
0.625 0.26388 0 
0.65 0.30718 0 
0.675 0.26388 0 
0.7 0.30718 0 
0.725 0.26388 0 
0.75 0.30718 0 
0.725 0.35048 0 
0.4 0.82679 0 
0.65 0.74019 0 
0.775 0.69689 0 
0.75 0.74019 0 
0.775 0.26388 0 
0.75 0.22058 0 
0.6 0.22081 0 
0.775 0.61029 0 
0.75 0.56699 0 
0.775 0.35048 0 
0.225 0.61029 0 
0.25 0.65359 0 
0.225 0.52369 0 
0.225 0.35048 0 
0.25 0.30718 0 
0.3 0.30718 0 
0.275 0.26388 0 
0.225 0.26388 0 
0.25 0.22058 0 
0.3 0.22058 0 
0.5 0.22058 0 
0.8 0.74019 0 
0.775 0.78349 0 
0.2 0.39378 0 
0.425 0.69689 0 
0.75 0.39378 0 
0.7 0.39378 0 
0.2 0.22058 0 
0.79809 0.22168 0 
0.8 0.56699 0 
0.2 0.65359 0 
0.225 0.69689 0 
0.8 0.39378 0 
0.275 0.69689 0 
0.25 0.74019 0 
0.2 0.74019 0 
0.225 0.78349 0 
0.7 0.56699 0 
0.45 0.22058 0 
0.55 0.82679 0 
0.225 0.17728 0 
0.77468 0.17746 0 
0.72495 0.17731 0 
0.47303 0.17841 0 
0.42467 0.17747 0 
0.825 0.61029 0 
0.17572 0.26429 0 
0.82394 0.26449 0 
0.175 0.17728 0 
0.81839 0.17492 0 
0.17468 0.78331 0 
0.82436 0.78312 0 
0.175 0.61029 0 
0.19995 0.82676 0 
0.24999 0.82679 0 
0.35 0.56699 0 
0.3 0.74019 0 
0.425 0.35048 0 
0.725 0.52369 0 
0.675 0.52369 0 
0.79989 0.82673 0 
0.74998 0.82678 0 
0.74994 0.13401 0 
0.15 0.74019 0 
0.85 0.74019 0 
0.85 0.56699 0 
0.825 0.52369 0 
0.14962 0.82657 0 
0.84923 0.82826 0 
0.22499 0.87009 0 
0.325 0.69689 0 
0.625 0.35048 0 
0.425 0.26388 0 
0.4 0.74019 0 
0.825 0.35048 0 
0.85 0.39378 0 
0.625 0.61029 0 
0.55 0.39378 0 
0.14996 0.65362 0 
0.525 0.17728 0 
0.175 0.35048 0 
0.15 0.39378 0 
0.175 0.43708 0 
0.775 0.43708 0 
0.275 0.87009 0 
0.3 0.82679 0 
0.77498 0.87008 0 
0.72499 0.87009 0 
0.7 0.82679 0 
0.675 0.8701 0 
0.65 0.82679 0 
0.625 0.8701 0 
0.69998 0.13422 0 
0.875 0.61029 0 
0.44152 0.13555 0 
0.4 0.13397 0 
0.2 0.13421 0 
0.15 0.13425 0 
0.25 0.13401 0 
0.12627 0.43782 0 
0.15021 0.48051 0 
0.092972 0.39622 0 
0.12617 0.60961 0 
0.1502 0.56687 0 
0.575 0.78349 0 
0.85 0.65359 0 
0.67499 0.17732 0 
0.65436 0.13061 0 
0.37495 0.17731 0 
0.34999 0.13422 0 
0.7 0.48038 0 
0.65 0.48038 0 
0.625 0.52369 0 
0.25 0.9134 0 
0.325 0.8701 0 
0.75 0.91339 0 
0.87374 0.35062 0 
0.12192 0.17996 0 
0.87349 0.52281 0 
0.84975 0.48024 0 
0.10029 0.13168 0 
0.89805 0.47918 0 
0.225 0.090673 0 
0.725 0.090673 0 
0.36764 0.090544 0 
0.1257 0.086665 0 
0.77405 0.09263 0 
0.275 0.090673 0 
0.9068 0.39579 0 
0.092882 0.65215 0 
0.89667 0.65278 0 
0.92161 0.61242 0 
0.10604 0.56253 0 
0.1031 0.47985 0 
0.2 0.9134 0 
0.375 0.9567 0 
0.044891 0.42331 0 
0.043301 0.375 0 
0.675 0.78349 0 
0.525 0.9567 0 
0.55 0.9134 0 
0.040472 0.52869 0 
0.20004 0.48041 0 
0.575 0.043301 0 
0.55 0.086367 0 
0.6 0.086603 0 
0.56762 0.13002 0 
0.5022 0.087907 0 
0.6 0.82679 0 
0.375 0.69689 0 
0.4 0.65359 0 
0.35 0.65359 0 
0.62303 0.042166 0 
0.95036 0.47644 0 
0.47573 0.043507 0 
0.35 0.74019 0 
0.043127 0.275 0 
0.093805 0.30343 0 
0.084722 0.24965 0 
0.625 0.78349 0 
0.049443 0.12783 0 
0.87468 0.95688 0 
0.89962 0.91361 0 
0.95394 0.91856 0 
0.92445 0.87421 0 
0.84988 0.91346 0 
0.95876 0.72488 0 
0.9562 0.77577 0 
0.91848 0.79501 0 
0.90885 0.74633 0 
0.12541 0.95693 0 
0.15007 0.91344 0 
0.099702 0.91485 0 
0.1249 0.87031 0 
0.074739 0.87155 0 
0.098295 0.82648 0 
0.07326 0.77892 0 
0.12307 0.78238 0 
0.098786 0.73764 0 
0.12454 0.69651 0 
0.875 0.043301 0 
0.89968 0.086416 0 
0.95395 0.081444 0 
0.925 0.1299 0 
0.875 0.1299 0 
0.90352 0.17264 0 
0.92698 0.22099 0 
0.88285 0.21972 0 
0.90394 0.25989 0 
0.042874 0.22546 0 
0.5 0.9134 0 
0.275 0.17728 0 
0.375 0.61029 0 
0.675 0.35048 0 
0.65 0.39378 0 
0.6 0.39378 0 
0.85112 0.085932 0 
0.375 0.52369 0 
0.425 0.52369 0 
0.22501 0.43709 0 
0.65 0.56699 0 
0.25001 0.48039 0 
0.325 0.35048 0 
0.35 0.30718 0 
0.325 0.26388 0 
0.7 0.74019 0 
0.325 0.61029 0 
0.375 0.78349 0 
0.125 0.35048 0 
0.20003 0.56697 0 
0.9567 0.375 0 
0.95031 0.26998 0 
0.325 0.78349 0 
0.79982 0.30728 0 
0.046943 0.73073 0 
0.042974 0.62657 0 
0.89891 0.56746 0 
0.725 0.78349 0 
0.45 0.56699 0 
0.45 0.30718 0 
0.6 0.74019 0 
0.625 0.9567 0 
0.775 0.52369 0 
0.35 0.39378 0 
0.575 0.61029 0 
0.45 0.65359 0 
0.39994 0.22061 0 
0.425 0.78349 0 
0.55 0.74019 0 
0.3 0.65359 0 
0.1281 0.52199 0 
0.84736 0.30861 0 
0.55 0.22085 0 
0.525 0.43708 0 
0.20012 0.30725 0 
0.675 0.61029 0 
0.17492 0.69683 0 
0.275 0.78349 0 
0.1756 0.5234 0 
0.575 0.35048 0 
0.69999 0.22059 0 
0.425 0.61029 0 
0.8 0.65359 0 
0.4 0.39378 0 
0.79435 0.13028 0 
0.575 0.43708 0 
0.15261 0.22232 0 
0.35 0.82679 0 
0.4 0.56699 0 
0.375 0.35048 0 
0.65 0.22063 0 
0.525 0.8701 0 
0.17492 0.87009 0 
0.6 0.56699 0 
0.4 0.30718 0 
0.62789 0.17517 0 
0.725 0.43708 0 
0.825 0.69689 0 
0.15 0.30718 0 
0.575 0.52369 0 
0.375 0.8701 0 
0.37499 0.26388 0 
0.3 0.13426 0 
0.87502 0.6983 0 
0.34999 0.22058 0 
0.325 0.1773 0 
0.6 0.48038 0 
0.6 0.9134 0 
0.575 0.8701 0 
0.625 0.43708 0 
0.75 0.48038 0 
0.65 0.9134 0 
0.675 0.43708 0 
0.7 0.9134 0 
0.79996 0.48036 0 
0.82495 0.43706 0 
0.875 0.43708 0 
0.725 0.9567 0 
0.35 0.9134 0 
0.775 0.9567 0 
0.3 0.9134 0 
0.79998 0.91341 0 
0.275 0.9567 0 
0.225 0.9567 0 
0.82483 0.87034 0 
0.87467 0.87302 0 
0.95562 0.57276 0 
0.77456 0.043881 0 
0.72498 0.040245 0 
0.45572 0.089803 0 
0.525 0.12849 0 
0.67591 0.09303 0 
0.57899 0.17571 0 
0.37893 0.044823 0 
0.32353 0.098598 0 
0.275 0.04189 0 
0.225 0.040142 0 
0.17504 0.093577 0 
0.12563 0.034368 0 
0.89999 0.3067 0 
0.076534 0.95894 0 
0.079494 0.045351 0 
0.080793 0.20401 0 
0.8732 0.78497 0 
0.12868 0.26329 0 
0.92292 0.69037 0 
0.079712 0.35002 0 
0.91867 0.35072 0 
0.080797 0.69852 0 
0.079467 0.093288 0 
0.079397 0.59622 0 
0.96522 0.625 0 
0.08354 0.44288 0 
0.91707 0.44221 0 
0.03289 0.87348 0 
0.96625 0.87475 0 
0.96661 0.12557 0 
0.084056 0.51846 0 
0.91594 0.51846 0 
0.032926 0.77702 0 
0.96737 0.225 0 
0.89964 0.83631 0 
0.86446 0.26877 0 
0.83935 0.22514 0 
0.9634 0.9634 0 
0.036603 0.036603 0 
0.036603 0.9634 0 
0.9634 0.036603 0 
0.6382 0.079789 0 
0.4882 0.14079 0 
0.41222 0.092061 0 
0.61233 0.1254 0 
0.86011 0.17195 0 
0.83607 0.12593 0 
0.81201 0.079667 0 
0.079637 0.16552 0 
0.11375 0.22385 0 
0.93461 0.64836 0 
0.069334 0.55345 0 
cells 944 3776
3 460 390 492 
3 385 87 473 
3 343 238 437 
3 83 460 492 
3 300 297 461 
3 461 297 462 
3 301 296 469 
3 469 296 470 
3 382 331 432 
3 298 86 467 
3 86 298 468 
3 91 297 465 
3 296 99 470 
3 297 91 462 
3 99 296 471 
3 320 253 464 
3 253 320 466 
3 301 86 468 
3 86 301 469 
3 299 99 471 
3 99 299 472 
3 362 385 473 
3 429 466 505 
3 463 321 503 
3 467 100 504 
3 466 320 505 
3 298 467 504 
3 268 463 503 
3 275 310 311 
3 101 302 384 
3 475 299 483 
3 472 299 475 
3 303 84 389 
3 362 360 385 
3 352 350 388 
3 346 105 348 
3 343 437 479 
3 361 497 506 
3 497 223 506 
3 242 477 495 
3 432 331 478 
3 238 343 477 
3 388 350 493 
3 385 360 494 
3 310 275 486 
3 302 101 487 
3 23 24 356 
3 40 41 337 
3 477 342 495 
3 331 382 480 
3 303 389 484 
3 348 105 488 
3 348 93 349 
3 357 98 359 
3 81 307 491 
3 295 327 492 
3 23 356 501 
3 337 41 498 
3 349 93 350 
3 359 98 360 
3 473 87 481 
3 84 303 482 
3 305 390 460 
3 97 338 495 
3 105 346 474 
3 275 311 480 
3 384 302 481 
3 315 81 491 
3 327 83 492 
3 334 294 509 
3 307 81 486 
3 327 295 487 
3 224 241 351 
3 342 97 495 
3 294 334 483 
3 359 360 361 
3 237 351 352 
3 237 352 353 
3 241 349 351 
3 237 224 351 
3 349 350 351 
3 331 332 478 
3 361 360 362 
3 353 252 410 
3 93 348 488 
3 338 97 489 
3 98 357 490 
3 484 102 512 
3 237 353 410 
3 303 252 353 
3 351 350 352 
3 241 347 349 
3 347 241 426 
3 345 347 426 
3 308 345 426 
3 308 96 345 
3 57 96 457 
3 96 308 457 
3 73 89 311 
3 110 108 309 
3 108 53 309 
3 277 404 412 
3 200 430 446 
3 51 52 80 
3 70 71 81 
3 309 88 452 
3 335 92 339 
3 404 274 412 
[...]
CELL_DATA 944
SCALARS p float
LOOKUP_TABLE default
0
-0.0086366
0.021093
-0.0041719
-0.0060253
-0.0064156
-0.017482
-0.017113
-0.018706
-0.017299
-0.017445
-0.0088406
-0.018914
-0.0088865
-0.019103
-0.010464
-0.010792
-0.01647
-0.016614
-0.017778
-0.01782
-0.0095498
-0.0098218
-0.013604
-0.015599
-0.010013
-0.016148
-0.014374
-0.024175
-0.0081333
-0.017856
-0.017582
-0.051972
-0.0082964
-0.071328
-0.15236
0.011535
-0.0082101
-0.0085038
0.060009
-0.015333
0.027545
-0.0747
-0.0095196
-0.025506
-0.0081447
-0.0081976
0.4653
0.075703
-0.019888
-0.045474
-0.15156
-0.111
-0.0083005
-0.02973
-0.010255
-0.0081325
0.58998
-0.099599
-0.0090255
-0.0079508
-0.057259
-0.002584
0.14457
-0.18917
-0.022031
-0.0097355
-0.031032
-0.0065738
-0.016502
-0.030185
-0.0055171
-0.083727
0.11403
-0.0169
-0.0086241
-0.073343
-0.068531
-0.089713
-0.076596
-0.086831
-0.021948
-0.008462
-0.059145
-0.12246
0.19494
-0.0086082
-0.038503
-0.064016
-0.055379
-0.080163
-0.10082
-0.091433
-0.10256
-0.084352
-0.086945
-0.050046
-0.073183
-0.019762
-0.068024
-0.055062
-0.036176
-0.010789
-0.066773
-0.026869
-0.064412
0.12793
-0.033666
-0.089132
-0.063921
0.18975
-0.06804
-0.089321
-0.029438
-0.084217
-0.072488
-0.033592
-0.032392
-0.0091118
0.11495
-0.0097974
-0.083515
-0.072744
-0.021209
-0.030154
-0.071908
-0.037654
-0.014324
-0.084647
-0.011797
0.062397
-0.078654
0.080519
0.089567
-0.058537
-0.01795
0.39322
-0.064535
-0.021603
-0.078723
-0.03008
-0.022009
-0.049228
-0.22991
-0.065943
-0.0087955
-0.0473
-0.012731
-0.041143
-0.052302
-0.032005
-0.074613
-0.014001
-0.061719
-0.06892
-0.014398
-0.08698
-0.06062
-0.065236
-0.080007
-0.01736
-0.081972
-0.08476
-0.067477
-0.053318
-0.016109
-0.049377
-0.11123
0.25878
-0.028438
-0.01629
-0.026488
-0.011167
-0.013576
-0.074314
-0.020383
-0.091234
-0.088157
-0.045697
-0.060474
-0.022606
-0.085766
-0.0077293
-0.12998
-0.1061
-0.01975
-0.082536
-0.07831
-0.00716
-0.012773
-0.054332
-0.067341
-0.0077112
-0.034759
-0.0073284
-0.034236
-0.0078115
-0.012623
-0.013361
0.045018
-0.061844
-0.11707
-0.072337
0.0017272
-0.05648
-0.074255
-0.0081677
0.0045243
-0.011064
0.036163
-0.0076654
-0.077303
-0.01135
-0.0092946
-0.0077073
0.065281
-0.013708
0.17836
0.12752
-0.08691
-0.069502
-0.016817
-0.023897
-0.043163
-0.048119
-0.07557
-0.070857
-0.01182
-0.018109
-0.02498
-0.026323
-0.015379
-0.024696
-0.029416
-0.037689
-0.02806
-0.0084374
-0.042046
-0.0081373
-0.032308
-0.073498
-0.010524
-0.015059
-0.0075019
-0.085397
-0.069663
-0.076927
-0.026297
-0.017988
-0.0066707
-0.038718
-0.013705
-0.073149
-0.056818
-0.035079
-0.010823
-0.017956
-0.016737
-0.072161
-0.0735
-0.034765
-0.068248
-0.0073848
-0.015914
-0.014616
-0.077626
-0.019051
-0.01781
-0.069878
-0.033016
-0.032602
-0.016032
-0.017939
-0.032992
-0.016411
-0.059372
-0.0664
-0.023826
-0.039958
-0.023411
-0.0070546
-0.0084126
-0.0066533
-0.038214
-0.064282
-0.018473
-0.034859
0.07237
-0.018102
-0.011204
-0.0094569
-0.02391
0.022739
-0.065321
-0.029999
-0.018035
-0.052188
-0.051581
-0.035312
-0.070313
-0.0081904
-0.048884
-0.029416
-0.035108
-0.069012
-0.0078495
-0.024366
-0.038906
-0.017582
-0.045053
-0.035307
-0.028617
-0.082266
-0.010096
-0.037589
-0.0075676
-0.0080378
-0.0080397
-0.039464
-0.074101
-0.064269
-0.010489
-0.010503
-0.030222
-0.039922
-0.0069355
-0.045503
-0.078563
-0.040553
-0.047325
-0.064929
-0.0070022
-0.042155
-0.0079063
-0.019899
-0.043809
-0.0075726
-0.01757
-0.030023
-0.014664
-0.021106
-0.044762
-0.0064145
-0.0063509
-0.051104
-0.049761
-0.01683
-0.039006
-0.079632
-0.0076174
-0.0089313
-0.0088603
-0.020279
-0.013176
-0.042913
-0.022259
-0.023528
-0.018689
-0.006078
-0.040451
-0.018936
-0.0078096
-0.080269
-0.018061
-0.016283
-0.034564
-0.022179
-0.0060881
-0.085408
-0.026
-0.070604
-0.0248
-0.015307
-0.0081763
-0.087293
-0.01782
-0.015115
-0.075134
-0.018609
-0.0054964
-0.077148
-0.016149
-0.036881
-0.020076
-0.012664
-0.0078612
-0.019649
-0.011667
-0.079292
-0.07415
-0.018208
-0.011775
-0.046872
-0.0095893
-0.0073857
-0.014238
-0.011499
-0.041615
-0.012127
-0.038159
-0.056381
-0.075477
-0.01062
-0.0064002
-0.044263
-0.029484
-0.053938
-0.014979
-0.059022
-0.016119
-0.0069116
-0.07866
-0.080715
-0.016045
-0.0037317
-0.0085412
-0.0068168
-0.064383
-0.078827
-0.032794
-0.021473
-0.070546
-0.07154
-0.070621
-0.051851
-0.0062027
-0.018493
-0.014541
-0.015676
-0.033804
0.2615
-0.046283
-0.019249
-0.050117
-0.015703
-0.0078843
-0.074869
-0.054909
-0.022186
-0.0098718
-0.044308
-0.015797
-0.010845
-0.077355
-0.031124
-0.026137
-0.015639
-0.0083962
-0.047603
-0.023229
-0.033401
-0.04772
-0.024416
-0.067176
-0.074312
-0.026457
-0.016218
-0.021963
-0.080897
-0.014789
-0.058679
-0.068439
-0.018486
-0.040883
-0.058076
-0.065073
-0.018677
-0.014383
-0.030025
-0.019694
-0.046451
-0.068506
-0.037735
-0.06002
-0.08618
-0.077175
-0.088414
-0.040921
-0.071631
-0.0093662
-0.070218
-0.074746
-0.021288
-0.074001
-0.066861
-0.060435
-0.020348
-0.030214
-0.077054
-0.017022
-0.057664
-0.01448
-0.062924
-0.024515
-0.023496
-0.081643
-0.049503
-0.039042
-0.061675
-0.031676
-0.0085049
-0.027809
-0.0097212
-0.085257
-0.029108
-0.065706
-0.055705
-0.012596
-0.0080426
-0.020761
-0.083066
-0.039536
-0.015244
-0.024792
-0.01258
-0.081396
-0.015746
-0.082837
-0.055325
-0.077943
-0.074345
-0.049735
-0.013365
-0.010294
-0.065054
-0.028436
-0.060007
-0.011264
-0.028328
-0.056376
-0.062713
0.003153
-0.0078118
-0.028999
-0.02851
-0.0072672
-0.072001
-0.020893
-0.052173
-0.064786
-0.018085
-0.0128
-0.018891
-0.066271
-0.055505
-0.058588
-0.080465
-0.0081796
-0.054614
-0.01728
-0.067372
-0.028194
-0.056278
-0.05713
-0.087853
-0.0024284
-0.072847
-0.041508
-0.021818
-0.026838
-0.025022
-0.012207
-0.084896
-0.023074
-0.056798
-0.020621
-0.073549
-0.026423
-0.022367
-0.021726
-0.041318
-0.015124
-0.053835
-0.050927
-0.022944
-0.01085
-0.046603
-0.026698
-0.0094123
-0.0075581
-0.0072756
-0.025292
-0.018887
-0.005158
-0.073091
-0.0092336
-0.01305
0.26195
-0.018511
-0.0079118
-0.051622
-0.058286
-0.012972
-0.05887
-0.0076433
-0.04992
-0.0025705
-0.070326
-0.018585
-0.0072937
-0.017353
-0.020336
-0.0080562
-0.0074667
-0.014728
-0.018641
-0.019461
-0.011403
-0.024159
-0.0074414
-0.023347
-0.025976
-0.008812
-0.022661
-0.024267
0.0017945
-0.04417
-0.017511
-0.012877
-0.063543
-0.046486
-0.063537
-0.012596
-0.05834
-0.014404
-0.018429
-0.019596
-0.025539
-0.070431
-0.0089135
-0.021031
-0.0040017
-0.0085108
-0.07444
-0.015541
-0.041078
-0.0080864
-0.018886
-0.048444
0.076602
-0.074499
-0.0076985
-0.0099997
-0.031962
-0.078383
-0.0074751
-0.080093
-0.017013
-0.041581
-0.071482
-0.099481
-0.029645
-0.011793
-0.018541
-0.0092514
0.00056241
-0.0069374
-0.072623
-0.019692
-0.021705
-0.084273
-0.0088965
-0.047746
-0.0092591
-0.074971
-0.0090074
-0.0078758
-0.044761
-0.018199
-0.027415
-0.071503
0.33975
-0.075402
-0.018478
-0.009354
-0.019216
-0.03899
-0.011038
-0.015531
-0.023819
-0.088656
-0.02012
-0.063265
-0.03647
-0.018914
-0.007284
0.00082256
-0.024414
-0.017365
-0.084825
-0.004882
-0.0198
-0.023659
-0.017685
-0.021345
-0.02118
0.00043483
-0.016915
-0.073638
-0.018129
-0.017549
-0.089188
-0.0010435
-0.018953
-0.016796
-0.079466
-0.028914
-0.017804
-0.016675
0.00025757
-0.017494
-0.0071969
-0.016718
-0.016776
-0.024135
-0.062087
-0.013844
-0.080025
-0.011319
-0.0072356
-0.0069914
-0.063019
-0.087196
-0.050052
-0.078491
-0.01642
-0.085104
-0.0073434
-0.020527
-0.07605
-0.0784
-0.012042
-0.016087
-0.017848
-0.069151
-0.0053079
-0.08079
0.031429
-0.020038
0.052158
-0.0094992
-0.046688
-0.045622
-0.0065802
-0.067871
-0.0057322
0.057938
-0.0046694
-0.0659
-0.049585
-0.033802
0.022976
-0.071668
-0.019648
-0.0066627
-0.014941
0.008202
-0.067253
0.18291
0.041085
-0.038398
-0.071256
-0.06945
-0.045276
-0.0067176
-0.071153
-0.044708
0.015204
-0.065242
0.0041518
0.086381
-0.0013344
0.13498
-0.070327
0.0068264
-0.039633
0.048095
-0.0083602
-0.013488
-0.0069338
-0.0062617
-0.011556
-0.0080337
-0.017773
-0.016144
-0.011455
-0.017559
-0.010163
-0.018321
-0.01837
-0.019391
-0.017511
-0.016166
-0.018925
-0.0073621
-0.0075404
-0.0078295
-0.0076609
-0.009826
-0.009405
-0.13137
-0.13289
-0.017604
-0.017385
-0.0065227
-0.0061288
-0.014075
-0.0065592
-0.01194
-0.0082984
-0.011006
-0.016989
-0.017221
-0.018201
-0.018888
-0.019098
-0.018846
-0.018516
-0.013221
-0.01471
-0.012229
-0.0096569
0.0098166
0.027209
-0.0086378
-0.01596
-0.008331
-0.015828
-0.0086652
-0.0083524
-0.086575
-0.0094448
0.02469
0.0112
-0.0082468
-0.021821
-0.025643
-0.010645
-0.017065
-0.11202
-0.016767
-0.045459
-0.0028056
-0.0098535
-0.0070845
-0.024616
-0.0089249
-0.17964
0.19619
-0.11792
-0.0093404
-0.018107
-0.035141
-0.0078917
-0.073952
-0.082385
-0.010813
-0.0096151
-0.043217
-0.056343
0.088883
-0.0075406
-0.0081812
-0.017212
-0.017299
-0.0077926
-0.007879
-0.0078907
0.93136
1.1622
-0.47452
-0.6689
0.46439
-0.00794
-0.0151
-0.013583
-0.01663
-0.008611
-0.022024
0.0078362
-0.0080918
-0.014378
-0.013243
-0.014561
-0.058984
-0.0070324
-0.0085238
0.017822
-0.021562
-0.0097499
-0.0084788
-0.062822
-0.025459
0.36023
-0.0085388
-0.01749
-0.042642
-0.01122
-0.015541
-0.027375
-0.0080119
-0.017027
-0.14031
-0.0088829
0.2784
0.2648
-0.0084127
-0.032473
-0.0061089
-0.077606
-0.010149
-0.025958
0.13546
-0.01539
-0.22226
-0.017465
-0.035216
-0.008858
-0.0079773
-0.0080339
-0.017047
-0.0075908
0.53437
-0.3053
-0.0086477
-0.014648
-0.016046
-0.0025386
-0.0091555
-0.0096683
-0.0078066
-0.0077527
-0.0079078
-0.0081583
-0.007318
-0.015146
0.0018959
-0.035569
-0.21194
-0.017335
-0.044147
-0.017415
0.0053931
-0.035767
SCALARS u float 3
LOOKUP_TABLE default
-0.042455 -0.1554 0
-0.0064555 -0.025416 0
-0.13293 -0.41546 0
-0.018618 -0.1124 0
-0.016442 -0.0047952 0
-0.015906 -0.0034193 0
-0.018794 0.004933 0
-0.014548 0.0028148 0
-0.019978 0.051532 0
-0.024657 0.0024757 0
-0.027566 0.0038797 0
-0.023699 -0.0050305 0
-0.011281 0.0034558 0
-0.018926 -0.0025545 0
-0.011303 0.0051639 0
-0.059321 -0.0031617 0
-0.061887 -0.004482 0
-0.024875 0.0051851 0
-0.019713 0.003074 0
-0.0066827 0.0047254 0
-0.0037411 0.0022091 0
-0.008817 -0.025828 0
-0.057025 -0.010157 0
-0.047471 0.0014948 0
-0.02832 0.0016069 0
-0.055505 -0.0071896 0
-0.031746 0.0027557 0
-0.050297 0.0028391 0
-0.0079269 0.044102 0
-0.010526 -0.047407 0
-0.0015264 0.0021089 0
-0.0018462 0.001552 0
-0.013612 0.11589 0
-0.0061354 -0.018568 0
-0.027749 0.17526 0
-0.067977 0.26681 0
-0.1061 -0.37554 0
-0.016037 -0.022289 0
-0.019135 -0.022235 0
-0.07503 -0.41672 0
-0.018252 0.042966 0
-0.13062 -0.42928 0
-0.020678 0.14964 0
-0.0024419 -0.011952 0
-0.011607 0.055653 0
-0.017901 -0.06339 0
-0.00014527 9.7534e-06 0
-0.0013935 -0.33997 0
-0.10046 -0.45812 0
-0.017095 0.047212 0
-0.017736 0.12033 0
-0.065291 0.24715 0
-0.057517 0.2358 0
-0.0033533 -0.0066096 0
-0.014064 0.07865 0
-0.030251 -0.1052 0
-5.9871e-05 4.2331e-05 0
-0.0099872 -0.44813 0
-0.043791 0.21734 0
-0.0042372 -0.0097523 0
-0.01005 -0.033675 0
-0.019056 0.13737 0
-0.047984 -0.18092 0
-0.074741 -0.46931 0
-0.038443 0.23807 0
-0.01059 0.044465 0
-0.012338 -0.046534 0
-0.0090661 0.068792 0
-0.019024 -0.092177 0
-0.0033154 0.0043838 0
-0.01343 0.072557 0
-0.026438 -0.092446 0
-0.075312 0.23628 0
-0.082157 -0.47754 0
-0.0020616 0.0031573 0
-0.0081037 -0.015707 0
-0.057679 0.21889 0
-0.052476 0.20695 0
-0.071603 0.24306 0
-0.070666 0.23003 0
-0.057333 0.22872 0
-0.0032472 0.034221 0
-0.009795 -0.021026 0
-0.056864 0.19546 0
-0.050352 0.2231 0
-0.067768 -0.46003 0
-0.0012701 -0.0036391 0
-0.011798 0.093834 0
-0.061048 0.20758 0
-0.041069 0.1761 0
-0.047881 0.21307 0
-0.077517 0.24689 0
-0.06587 0.23007 0
-0.036601 0.20843 0
0.034569 0.16786 0
0.16293 0.12146 0
0.62387 0.032335 0
0.30512 0.077616 0
-0.0025813 0.016522 0
0.53271 0.027805 0
0.78639 0.0083514 0
-0.043382 0.13126 0
-0.14617 -0.092909 0
0.87241 0.0042552 0
-0.00207 0.021944 0
0.49124 0.034959 0
0.43685 -0.10108 0
-0.041922 0.11973 0
0.088627 0.043203 0
0.39093 0.053297 0
0.74884 -0.032935 0
0.82062 0.004177 0
0.05266 0.025814 0
-0.0029826 0.038455 0
-0.023877 -0.027645 0
0.8305 0.0020825 0
-0.0029055 0.042977 0
-0.070733 0.12246 0
-0.014474 -0.00057382 0
0.6916 -0.039289 0
-0.026799 -0.0017201 0
0.19357 0.065569 0
0.56686 0.021904 0
-0.0015782 0.010601 0
-0.0010418 0.02055 0
0.88098 0.0028606 0
-0.035287 0.12848 0
-0.0018525 -0.019466 0
-0.049613 -0.0015137 0
-0.0085774 -7.9541e-05 0
-0.08049 -0.41377 0
0.54789 0.018214 0
-0.06479 -0.40705 0
-0.042271 -0.28652 0
-0.11164 0.17105 0
7.4457e-05 0.01123 0
0.6225 -0.05995 0
-0.14938 -0.12059 0
-0.0029274 0.023452 0
-0.063584 -0.065421 0
-0.068002 0.11084 0
-0.0046156 0.018309 0
0.76113 0.011208 0
-0.028207 0.19148 0
-0.10071 0.1687 0
-0.0054362 -0.045403 0
-0.12852 0.14203 0
-0.016059 7.7693e-05 0
-0.13787 0.11783 0
-0.12542 0.15186 0
-0.050173 0.11874 0
0.52049 0.02588 0
-0.0060733 -0.034986 0
0.80594 0.0061519 0
0.40579 -0.022479 0
-0.015739 0.00023069 0
-0.016607 0.025077 0
-0.11279 0.16542 0
0.32879 0.068416 0
0.61439 0.010426 0
-0.044752 0.016389 0
0.31149 0.048217 0
0.35503 0.013505 0
-0.092123 0.15909 0
-0.11678 0.16351 0
-0.14231 -0.020326 0
0.82474 0.010004 0
-0.074877 0.25525 0
0.57045 -0.077068 0
-0.075684 0.10382 0
-0.00015006 -0.00016016 0
-0.072068 0.092649 0
-0.0034187 -0.02508 0
-0.0085646 8.2581e-05 0
-0.11838 -0.074118 0
-0.00081204 0.0070981 0
0.21152 0.108 0
0.091276 0.0045583 0
-0.13743 0.129 0
0.86048 0.0057209 0
-0.003212 0.023193 0
0.048893 -0.021178 0
-0.0018448 -0.0012866 0
-0.076977 0.25223 0
-0.033836 0.2145 0
0.00014606 0.0125 0
0.37885 0.034721 0
0.34993 0.047141 0
-0.00060543 -0.00036413 0
-0.029594 9.5352e-05 0
0.84489 0.0075187 0
0.53681 0.050216 0
-0.0012389 -0.0012084 0
-0.22268 -0.10439 0
-0.0040555 -0.0027008 0
-0.06237 0.12792 0
-0.0060545 -0.0051229 0
-0.16318 -0.10373 0
-0.13936 -0.044751 0
-0.062962 -0.3569 0
-0.1355 -0.15589 0
0.057972 0.16851 0
-0.068813 0.15662 0
-0.0093539 -0.065925 0
0.71219 0.028568 0
0.034586 0.13955 0
-0.0018546 -0.002464 0
-0.020401 -0.15334 0
-0.028544 -0.0008955 0
-0.030906 -0.21258 0
-0.012371 -0.0012442 0
0.59419 0.01638 0
-0.12824 -0.054371 0
-0.11437 -0.073469 0
-0.0058119 -0.00052096 0
-0.021959 -0.15736 0
-0.1353 -0.032019 0
0.28972 -0.18355 0
-0.022932 -0.23246 0
0.16084 0.061825 0
-0.078377 0.20311 0
-2.816e-05 -0.00036899 0
-0.0036807 0.031958 0
-0.21955 -0.070113 0
0.76247 0.019464 0
-0.0019917 0.16301 0
0.050512 0.13891 0
-0.034723 -0.00062455 0
-0.048269 0.025445 0
-0.06036 0.088433 0
-0.035419 0.086975 0
-0.0010998 0.00097689 0
-0.042409 0.086171 0
-0.029844 0.095606 0
0.022067 -0.19668 0
-0.037357 0.097291 0
-0.10068 -0.063588 0
0.18624 -0.11501 0
-0.0057236 -0.0079625 0
0.30989 -0.08654 0
0.31394 0.059004 0
-0.12961 -0.067949 0
-0.12328 -0.0099147 0
3.1752e-06 -0.00013327 0
0.6416 0.041687 0
-0.082303 0.19501 0
-0.0050364 0.13373 0
0.10977 -0.1665 0
-0.041152 0.02383 0
-0.0020704 -0.00073062 0
-0.12671 0.12039 0
-0.0039291 0.0058787 0
-0.046356 0.1431 0
-0.066047 -0.18148 0
-0.12418 0.10867 0
-0.015701 -0.00036079 0
-0.029452 0.016635 0
-0.045492 0.01282 0
-0.076025 0.22396 0
0.010161 0.13645 0
-0.16165 0.070779 0
0.21901 -0.05705 0
-0.0047456 -0.002109 0
-0.00034599 -0.0001215 0
-0.0011973 0.0011144 0
0.27723 0.062215 0
-4.9573e-06 0.0064953 0
-0.025358 0.0095264 0
0.48542 0.033525 0
-0.11186 0.10958 0
-0.15026 0.077393 0
-0.13609 -0.009365 0
-0.036349 0.018514 0
-0.13155 0.095817 0
-0.0012227 0.0055552 0
0.15605 -0.09256 0
-0.072995 0.21606 0
-0.0037802 0.025715 0
-0.098169 0.14278 0
-0.039782 0.07662 0
-0.00053469 -0.00032802 0
-0.0070039 -0.00047904 0
-0.0014627 -0.00051885 0
-0.10658 0.1325 0
-0.097285 0.18572 0
-0.060648 0.03309 0
-0.10408 0.12057 0
0.42022 -0.10354 0
-0.024291 0.011746 0
-0.11221 -0.036916 0
-0.10151 -0.052771 0
-0.0020806 0.014847 0
-0.014546 -0.10618 0
-0.092996 0.17766 0
-0.048179 0.10765 0
-0.044893 -0.26632 0
-0.038557 0.16526 0
-0.083466 0.18324 0
-0.21487 -0.047631 0
-0.076834 0.176 0
-0.085618 -0.064139 0
-0.071679 0.17746 0
-0.217 -0.10172 0
-0.14347 0.092218 0
-0.070473 0.18303 0
-0.0044665 -0.0051944 0
-0.20306 -0.074137 0
-0.16485 0.081656 0
-0.15658 -0.02019 0
-0.069881 0.16545 0
-0.22209 -0.13465 0
-0.21433 -0.07605 0
0.23157 -0.013228 0
-0.0081446 -0.0002831 0
-0.085729 0.13958 0
-0.074898 -0.054152 0
-0.11263 -0.086361 0
-0.044727 -0.018671 0
-0.077032 0.14722 0
0.031938 -0.083022 0
-0.086226 -0.14697 0
-0.11395 -0.047901 0
-0.043511 -0.0034753 0
-0.10786 0.097973 0
-0.11375 -0.24527 0
-0.03824 -0.041703 0
-0.090943 0.16383 0
0.18057 -0.036989 0
-0.11841 0.13262 0
-0.050327 0.1695 0
0.0619 -0.11244 0
-0.082208 -0.073296 0
-0.057139 0.15574 0
-0.094157 -0.085703 0
-0.080153 0.048982 0
-0.099483 0.15449 0
-0.065909 -0.06859 0
-0.0058556 0.00064699 0
-0.12678 0.084601 0
-0.10071 0.0036982 0
-0.07546 0.056722 0
-0.11892 0.144 0
-0.08931 -0.09585 0
-0.060242 -0.07448 0
-0.06273 0.18202 0
-0.091681 0.17493 0
-0.11287 0.014651 0
-0.14616 0.10364 0
-0.10504 -0.0079408 0
-0.10225 -0.11114 0
-0.045429 -0.014884 0
-0.08949 -0.04504 0
-0.065175 0.05514 0
-0.11741 -0.019143 0
-0.078883 0.15931 0
-0.20947 -0.1292 0
-0.056845 0.078089 0
-0.065445 0.040262 0
-0.034618 -0.076591 0
-0.036236 0.14027 0
-0.19437 -0.096588 0
-0.044089 -0.050828 0
-0.09558 0.04414 0
-0.052642 0.03161 0
-0.043636 0.0068474 0
-0.083347 0.12753 0
-0.080494 0.066096 0
-0.06226 -0.093099 0
-0.045269 0.047329 0
-0.21747 -0.16802 0
-0.090482 0.1386 0
-0.097162 0.076658 0
-0.0085052 0.00020909 0
-0.044505 -0.07827 0
0.18722 0.0048358 0
-0.0066474 0.0084802 0
-0.056698 0.0069075 0
-0.040054 -0.095584 0
-0.1133 0.024276 0
-0.14447 -0.22756 0
0.035509 0.11694 0
-0.10302 0.011272 0
-0.064481 0.14002 0
-0.15194 0.0064759 0
-0.0030545 -0.022505 0
-0.061463 -0.051453 0
-0.060887 0.046459 0
-0.0029962 -0.014472 0
-0.052208 0.113 0
-0.13257 -0.043678 0
-0.027407 0.019922 0
-0.0015265 -0.0095159 0
-0.17295 0.083603 0
-0.068783 -0.018694 0
-0.069522 -0.087787 0
-0.090946 0.0023822 0
-0.00094218 -0.0063324 0
-0.1747 0.07285 0
-0.0020774 -0.015565 0
-0.18239 0.05334 0
-0.17012 0.082137 0
-0.060075 0.13624 0
-0.099764 -0.032019 0
-0.067949 -0.15259 0
-0.047889 0.15647 0
-0.1444 0.066875 0
-0.0036736 0.038209 0
-0.06207 0.0054282 0
-0.10409 0.18133 0
-0.096022 0.015659 0
-0.057171 -0.057386 0
0.10475 0.10088 0
0.015306 0.1133 0
-0.051821 0.0098549 0
-0.098744 -0.18187 0
-0.07727 -0.046142 0
-0.038482 -0.065497 0
-0.091394 0.19482 0
0.16437 0.083026 0
-0.091485 0.11876 0
-0.20817 -0.1572 0
-0.14539 0.058599 0
-0.10397 0.12758 0
-0.15749 0.010007 0
0.00090699 -0.16422 0
-0.10994 -0.2074 0
-0.19567 -0.12016 0
-0.085476 0.0064062 0
-0.05816 0.0096852 0
-0.17811 0.043589 0
0.28743 -0.18491 0
-0.11038 0.15532 0
-0.074546 0.041055 0
-0.17963 0.072212 0
-0.087278 0.012253 0
-0.045276 -0.064826 0
-0.064499 0.19756 0
-0.13072 0.14733 0
-0.046161 0.073149 0
-0.0011786 -0.0051101 0
-0.0026427 0.031855 0
-0.080555 0.014913 0
-0.0017213 -0.011249 0
-0.11964 0.017469 0
-0.030944 0.10563 0
-0.10902 0.075962 0
-0.072426 0.011552 0
-0.051623 -0.024543 0
-0.0051271 0.063702 0
-0.09165 0.066612 0
-0.20932 -0.02587 0
-0.1661 -0.21194 0
-0.21273 -0.20038 0
-0.16344 0.032866 0
-0.089544 0.11439 0
-0.053205 0.093651 0
-0.19627 -0.22376 0
-0.14249 0.029785 0
0.083818 -0.046162 0
-0.070869 0.0071708 0
-0.15756 0.10131 0
-0.10246 0.1497 0
-0.13949 0.0029199 0
-0.19136 0.040471 0
0.88202 -0.0030438 0
-0.17694 -0.022987 0
-0.038242 0.027345 0
-0.076661 0.0047691 0
-0.18236 0.024063 0
-0.12279 0.029961 0
-0.18988 0.050332 0
-0.13544 0.095753 0
-0.0020533 0.024031 0
-0.17162 0.067787 0
0.07688 0.072873 0
-0.11143 0.064504 0
0.046189 0.061988 0
-0.21465 -0.17212 0
-0.040848 0.17978 0
-0.15651 -0.20755 0
0.88662 -0.00065458 0
-0.10653 0.10015 0
-0.059413 0.061859 0
0.88594 0.0013082 0
-0.15133 0.076072 0
-0.12178 0.15436 0
-0.1321 0.023657 0
-0.088102 0.10699 0
-0.034019 0.12182 0
-0.12032 0.0082212 0
-0.19971 -0.030505 0
-0.10625 -0.0024231 0
-0.12012 0.14676 0
-0.14045 0.04353 0
-0.074572 0.074252 0
0.058461 0.096562 0
-0.16289 0.10168 0
-0.055297 0.14353 0
-0.0035441 0.052307 0
-0.1675 0.053699 0
-0.15593 -0.25308 0
-0.13261 0.071621 0
-0.089663 -0.036134 0
-0.01714 0.065675 0
-0.21542 -0.21234 0
-0.12731 0.12424 0