# vtk DataFile Version 1.0
unstructured grid
ascii
DATASET UNSTRUCTURED_GRID
points 1941 float
0 0 0 
1 0 0 
0 1 0 
1 1 0 
0.025 0 0 
0.05 0 0 
0.075 0 0 
0.1 0 0 
0.125 0 0 
0.15 0 0 
0.175 0 0 
0.2 0 0 
0.225 0 0 
0.25 0 0 
0.275 0 0 
0.3 0 0 
0.325 0 0 
0.35 0 0 
0.375 0 0 
0.4 0 0 
0.425 0 0 
0.45 0 0 
0.475 0 0 
0.5 0 0 
0.525 0 0 
0.55 0 0 
0.575 0 0 
0.6 0 0 
0.625 0 0 
0.65 0 0 
0.675 0 0 
0.7 0 0 
0.725 0 0 
0.75 0 0 
0.775 0 0 
0.8 0 0 
0.825 0 0 
0.85 0 0 
0.875 0 0 
0.9 0 0 
0.925 0 0 
0.95 0 0 
0.975 0 0 
1 0.025 0 
1 0.05 0 
1 0.075 0 
1 0.1 0 
1 0.125 0 
1 0.15 0 
1 0.175 0 
1 0.2 0 
1 0.225 0 
1 0.25 0 
1 0.275 0 
1 0.3 0 
1 0.325 0 
1 0.35 0 
1 0.375 0 
1 0.4 0 
1 0.425 0 
1 0.45 0 
1 0.475 0 
1 0.5 0 
1 0.525 0 
1 0.55 0 
1 0.575 0 
1 0.6 0 
1 0.625 0 
1 0.65 0 
1 0.675 0 
1 0.7 0 
1 0.725 0 
1 0.75 0 
1 0.775 0 
1 0.8 0 
1 0.825 0 
1 0.85 0 
1 0.875 0 
1 0.9 0 
1 0.925 0 
1 0.95 0 
1 0.975 0 
0.975 1 0 
0.95 1 0 
0.925 1 0 
0.9 1 0 
0.875 1 0 
0.85 1 0 
0.825 1 0 
0.8 1 0 
0.775 1 0 
0.75 1 0 
0.725 1 0 
0.7 1 0 
0.675 1 0 
0.65 1 0 
0.625 1 0 
0.6 1 0 
0.575 1 0 
0.55 1 0 
0.525 1 0 
0.5 1 0 
0.475 1 0 
0.45 1 0 
0.425 1 0 
0.4 1 0 
0.375 1 0 
0.35 1 0 
0.325 1 0 
0.3 1 0 
0.275 1 0 
0.25 1 0 
0.225 1 0 
0.2 1 0 
0.175 1 0 
0.15 1 0 
0.125 1 0 
0.1 1 0 
0.075 1 0 
0.05 1 0 
0.025 1 0 
0 0.975 0 
0 0.95 0 
0 0.925 0 
0 0.9 0 
0 0.875 0 
0 0.85 0 
0 0.825 0 
0 0.8 0 
0 0.775 0 
0 0.75 0 
0 0.725 0 
0 0.7 0 
0 0.675 0 
0 0.65 0 
0 0.625 0 
0 0.6 0 
0 0.575 0 
0 0.55 0 
0 0.525 0 
0 0.5 0 
0 0.475 0 
0 0.45 0 
0 0.425 0 
0 0.4 0 
0 0.375 0 
0 0.35 0 
0 0.325 0 
0 0.3 0 
0 0.275 0 
0 0.25 0 
0 0.225 0 
0 0.2 0 
0 0.175 0 
0 0.15 0 
0 0.125 0 
0 0.1 0 
0 0.075 0 
0 0.05 0 
0 0.025 0 
0.4875 0.97835 0 
0.020505 0.4875 0 
0.5125 0.021651 0 
0.97835 0.5125 0 
0.97622 0.39044 0 
0.38746 0.022202 0 
0.6125 0.97835 0 
0.02268 0.61155 0 
0.3625 0.97835 0 
0.97835 0.6375 0 
0.021188 0.36231 0 
0.63675 0.022913 0 
0.023875 0.73897 0 
0.7375 0.97835 0 
0.2625 0.023008 0 
0.97793 0.26299 0 
0.2625 0.97835 0 
0.022069 0.26299 0 
0.97504 0.73812 0 
0.7375 0.022032 0 
0.8375 0.97835 0 
0.021651 0.8375 0 
0.022309 0.16288 0 
0.8375 0.023008 0 
0.1625 0.97835 0 
0.97835 0.8375 0 
0.97952 0.16262 0 
0.1625 0.022032 0 
0.02116 0.0875 0 
0.91361 0.02194 0 
0.9125 0.97835 0 
0.021651 0.9125 0 
0.086613 0.97622 0 
0.97779 0.91273 0 
0.97591 0.091237 0 
0.087558 0.022959 0 
0.4375 0.97835 0 
0.025077 0.43713 0 
0.97617 0.56471 0 
0.5597 0.022607 0 
0.5375 0.97835 0 
0.021651 0.5375 0 
0.97835 0.4625 0 
0.4625 0.021651 0 
0.3125 0.97835 0 
0.2125 0.97835 0 
0.97835 0.6875 0 
0.97916 0.7875 0 
0.02296 0.30904 0 
0.023756 0.21611 0 
0.6875 0.022032 0 
0.7875 0.023632 0 
0.3383 0.02246 0 
0.97876 0.33788 0 
0.02377 0.65865 0 
0.97628 0.2155 0 
0.6625 0.97835 0 
0.7875 0.97835 0 
0.023838 0.78549 0 
0.2125 0.023632 0 
0.019471 0.035126 0 
0.96229 0.020035 0 
0.96153 0.97891 0 
0.021092 0.96153 0 
0.4625 0.97835 0 
0.475 0.9567 0 
0.5 0.9567 0 
0.4875 0.93505 0 
0.5125 0.93505 0 
0.5 0.9134 0 
0.475 0.9134 0 
0.4875 0.89175 0 
0.5125 0.89175 0 
0.5 0.8701 0 
0.525 0.8701 0 
0.5125 0.84845 0 
0.5375 0.84845 0 
0.525 0.82679 0 
0.5 0.82679 0 
0.5125 0.80514 0 
0.4875 0.80514 0 
0.5 0.78349 0 
0.525 0.78349 0 
0.5125 0.76184 0 
0.4875 0.76184 0 
0.5 0.74019 0 
0.525 0.74019 0 
0.5125 0.71854 0 
0.4875 0.71854 0 
0.5 0.69689 0 
0.475 0.69689 0 
0.4875 0.67524 0 
0.5125 0.67524 0 
0.5 0.65359 0 
0.525 0.65359 0 
0.5125 0.63194 0 
0.4875 0.63194 0 
0.5 0.61029 0 
0.525 0.61029 0 
0.5125 0.58864 0 
0.4875 0.58864 0 
0.5 0.56699 0 
0.475 0.56699 0 
0.4875 0.54534 0 
0.5125 0.54534 0 
0.5 0.52369 0 
0.475 0.52369 0 
0.525 0.52369 0 
0.4875 0.50204 0 
0.4625 0.50204 0 
0.475 0.48038 0 
0.45 0.48038 0 
0.4625 0.45873 0 
0.4375 0.45873 0 
0.425 0.48038 0 
0.4125 0.45873 0 
0.425 0.43708 0 
0.4 0.48038 0 
0.4 0.43708 0 
0.4125 0.41543 0 
0.3875 0.41543 0 
0.4 0.39378 0 
0.375 0.39378 0 
0.3875 0.37213 0 
0.4125 0.37213 0 
0.3625 0.37213 0 
0.35 0.39378 0 
0.3375 0.37213 0 
0.4 0.35048 0 
0.425 0.35048 0 
0.325 0.39378 0 
0.3125 0.37213 0 
0.4125 0.32883 0 
0.4375 0.32883 0 
0.3 0.39378 0 
0.425 0.30718 0 
0.45 0.30718 0 
0.2875 0.37213 0 
0.3 0.35048 0 
0.275 0.35048 0 
0.2875 0.32883 0 
0.275 0.39378 0 
0.4375 0.28553 0 
0.4625 0.28553 0 
0.475 0.30718 0 
0.4875 0.28553 0 
0.5 0.30718 0 
0.5125 0.28553 0 
0.525 0.30718 0 
0.5375 0.28553 0 
0.55 0.30718 0 
0.5625 0.28553 0 
0.575 0.30718 0 
0.5875 0.28553 0 
0.6 0.30718 0 
0.6125 0.28553 0 
0.625 0.30718 0 
0.6375 0.28553 0 
0.65 0.30718 0 
0.6625 0.28553 0 
0.675 0.30718 0 
0.6875 0.28553 0 
0.7 0.30718 0 
0.6875 0.32883 0 
0.7125 0.28553 0 
0.7125 0.32883 0 
0.7 0.35048 0 
0.725 0.35048 0 
0.7125 0.37213 0 
0.7375 0.37213 0 
0.725 0.39378 0 
0.2625 0.32883 0 
0.275 0.30718 0 
0.6 0.26388 0 
0.75 0.35048 0 
0.75 0.39378 0 
0.7375 0.41543 0 
0.25 0.30718 0 
0.2625 0.28553 0 
0.475 0.26388 0 
0.7 0.26388 0 
0.725 0.26388 0 
0.2375 0.28553 0 
0.25 0.26388 0 
0.2375 0.32883 0 
0.7625 0.41543 0 
0.75 0.43708 0 
0.7125 0.24223 0 
0.7375 0.24223 0 
0.725 0.43708 0 
0.7375 0.45873 0 
0.7625 0.45873 0 
0.75 0.48038 0 
0.775 0.48038 0 
0.7625 0.50204 0 
0.7375 0.50204 0 
0.75 0.52369 0 
0.725 0.52369 0 
0.7375 0.54534 0 
0.7625 0.54534 0 
0.75 0.56699 0 
0.775 0.56699 0 
0.7625 0.58864 0 
0.7375 0.58864 0 
0.75 0.61029 0 
0.775 0.61029 0 
0.7625 0.63194 0 
0.7375 0.63194 0 
0.75 0.65359 0 
0.725 0.65359 0 
0.7375 0.67524 0 
0.7625 0.67524 0 
0.75 0.69689 0 
0.775 0.69689 0 
0.7625 0.71854 0 
0.7375 0.71854 0 
0.75 0.74019 0 
0.225 0.26388 0 
0.2375 0.24223 0 
0.2625 0.24223 0 
0.775 0.74019 0 
0.7625 0.76184 0 
0.7375 0.76184 0 
0.5875 0.32883 0 
0.2875 0.41543 0 
0.2625 0.41543 0 
0.275 0.43708 0 
0.25 0.43708 0 
0.2625 0.45873 0 
0.2375 0.45873 0 
0.25 0.48038 0 
0.225 0.48038 0 
0.2375 0.50204 0 
0.2125 0.45873 0 
0.7875 0.76184 0 
0.2125 0.24223 0 
0.2125 0.50204 0 
0.225 0.52369 0 
0.25 0.52369 0 
0.2375 0.54534 0 
0.2625 0.54534 0 
0.25 0.56699 0 
0.275 0.56699 0 
0.2625 0.58864 0 
0.2375 0.58864 0 
0.25 0.61029 0 
0.275 0.61029 0 
0.2625 0.63194 0 
0.2375 0.63194 0 
0.25 0.65359 0 
0.225 0.65359 0 
0.2375 0.67524 0 
0.2625 0.67524 0 
0.25 0.69689 0 
0.275 0.69689 0 
0.2625 0.71854 0 
0.2375 0.71854 0 
0.25 0.74019 0 
0.275 0.74019 0 
0.2625 0.76184 0 
0.2375 0.76184 0 
0.2875 0.76184 0 
0.225 0.22058 0 
0.725 0.22058 0 
0.75 0.22058 0 
0.4625 0.89175 0 
0.7625 0.24223 0 
0.775 0.22058 0 
0.7875 0.24223 0 
0.75 0.78349 0 
0.725 0.78349 0 
0.275 0.78349 0 
0.3 0.78349 0 
0.2 0.52369 0 
0.2 0.22058 0 
0.8 0.22058 0 
0.2 0.26388 0 
0.7625 0.19893 0 
0.8125 0.24223 0 
0.2125 0.19893 0 
0.3125 0.76184 0 
0.2875 0.80514 0 
0.1875 0.19893 0 
0.4875 0.45873 0 
0.325 0.78349 0 
0.7375 0.80514 0 
0.7125 0.80514 0 
0.7 0.78349 0 
0.825 0.22058 0 
0.6875 0.80514 0 
0.675 0.78349 0 
0.4125 0.28553 0 
0.7 0.82679 0 
0.2 0.17728 0 
0.225 0.17728 0 
0.175 0.17728 0 
0.3375 0.76184 0 
0.6875 0.37213 0 
0.7 0.22058 0 
0.1625 0.19893 0 
0.8375 0.24223 0 
0.675 0.82679 0 
0.35 0.78349 0 
0.85 0.22058 0 
0.8375 0.19893 0 
0.55 0.8701 0 
0.825 0.26388 0 
0.85 0.26388 0 
0.8375 0.28553 0 
0.1875 0.15563 0 
0.1625 0.15563 0 
0.5125 0.32883 0 
0.6875 0.84845 0 
0.2875 0.54534 0 
0.3625 0.76184 0 
0.35 0.74019 0 
0.8625 0.28553 0 
0.85 0.30718 0 
0.8625 0.19893 0 
0.85 0.17728 0 
0.5625 0.84845 0 
0.575 0.8701 0 
0.2875 0.45873 0 
0.375 0.78349 0 
0.3625 0.80514 0 
0.3 0.30718 0 
0.175 0.13397 0 
0.15 0.13397 0 
0.875 0.30718 0 
0.8625 0.32883 0 
0.875 0.17728 0 
0.8625 0.15563 0 
0.8375 0.15563 0 
0.85 0.13397 0 
0.825 0.13397 0 
0.875 0.13397 0 
0.3875 0.80514 0 
0.375 0.82679 0 
0.375 0.74019 0 
0.3625 0.71854 0 
0.2 0.13397 0 
0.2125 0.63194 0 
0.2 0.65359 0 
0.1875 0.63194 0 
0.175 0.65359 0 
0.1625 0.63194 0 
0.15 0.65359 0 
0.1625 0.67524 0 
0.1375 0.67524 0 
0.15 0.69689 0 
0.1375 0.63194 0 
0.125 0.69689 0 
0.1375 0.71854 0 
0.15 0.61029 0 
0.125 0.61029 0 
0.1375 0.58864 0 
0.7625 0.80514 0 
0.2375 0.41543 0 
0.7125 0.67524 0 
0.7 0.65359 0 
0.6875 0.67524 0 
0.675 0.65359 0 
0.6625 0.67524 0 
0.65 0.65359 0 
0.6375 0.67524 0 
0.6625 0.63194 0 
0.6375 0.63194 0 
0.65 0.61029 0 
0.625 0.61029 0 
0.6375 0.58864 0 
0.6125 0.58864 0 
0.625 0.56699 0 
0.75 0.82679 0 
0.775 0.82679 0 
0.7625 0.84845 0 
0.7875 0.84845 0 
0.875 0.26388 0 
0.2875 0.67524 0 
0.7125 0.50204 0 
0.4375 0.41543 0 
0.7875 0.63194 0 
0.7875 0.45873 0 
0.8 0.48038 0 
0.8125 0.45873 0 
0.825 0.48038 0 
0.8375 0.45873 0 
0.85 0.48038 0 
0.8625 0.45873 0 
0.875 0.48038 0 
0.8625 0.50204 0 
0.85 0.43708 0 
0.875 0.43708 0 
0.1875 0.50204 0 
0.4625 0.58864 0 
0.5375 0.71854 0 
0.775 0.39378 0 
0.425 0.26388 0 
0.4 0.26388 0 
0.4125 0.24223 0 
0.3875 0.24223 0 
0.4 0.22058 0 
0.375 0.22058 0 
0.3875 0.19893 0 
0.4125 0.19893 0 
0.4 0.17728 0 
0.425 0.17728 0 
0.375 0.17728 0 
0.4125 0.15563 0 
0.4375 0.15563 0 
0.425 0.13397 0 
0.45 0.13397 0 
0.4625 0.15563 0 
0.475 0.13397 0 
0.4875 0.15563 0 
0.5 0.13397 0 
0.5125 0.15563 0 
0.525 0.13397 0 
0.5375 0.15563 0 
0.55 0.13397 0 
0.5625 0.15563 0 
0.575 0.13397 0 
0.5875 0.15563 0 
0.6 0.13397 0 
0.4 0.13397 0 
0.4625 0.67524 0 
0.55 0.74019 0 
0.4125 0.50204 0 
0.3875 0.50204 0 
0.4 0.52369 0 
0.7125 0.19893 0 
0.3 0.56699 0 
0.8 0.61029 0 
0.8125 0.63194 0 
0.825 0.61029 0 
0.8375 0.63194 0 
0.85 0.61029 0 
0.8625 0.63194 0 
0.85 0.65359 0 
0.875 0.61029 0 
0.875 0.65359 0 
0.8625 0.67524 0 
0.8 0.82679 0 
0.8125 0.84845 0 
0.825 0.82679 0 
0.8375 0.84845 0 
0.85 0.82679 0 
0.86272 0.84832 0 
0.87525 0.82653 0 
0.86254 0.8051 0 
0.2625 0.80514 0 
0.275 0.82679 0 
0.25 0.82679 0 
0.2625 0.84845 0 
0.2375 0.84845 0 
0.225 0.82679 0 
0.2125 0.84845 0 
0.2 0.82679 0 
0.1875 0.84845 0 
0.175 0.82679 0 
0.1625 0.84845 0 
0.15 0.82679 0 
0.1375 0.84845 0 
0.125 0.82679 0 
0.2875 0.84845 0 
0.1375 0.15563 0 
0.125 0.13397 0 
0.525 0.26388 0 
0.6125 0.15563 0 
0.625 0.13397 0 
0.8 0.8701 0 
0.85004 0.87008 0 
0.87526 0.86995 0 
0.175 0.8701 0 
0.225 0.8701 0 
0.275 0.8701 0 
0.3 0.8701 0 
[...]
CELL_DATA 3720
SCALARS p float
LOOKUP_TABLE default
0
0.00039267
0.00017279
0.00023332
0.00027576
0.00038361
0.00065202
1.8987e-05
0.00026015
-9.4608e-05
0.00075753
0.00022592
0.00027441
0.00016243
0.00038876
0.00027879
0.0003798
0.00041421
0.001798
-0.00071327
0.000249
0.00040977
0.00037004
0.00026265
0.00026923
0.00041329
0.00018629
0.00050128
0.00046172
-0.00068693
0.00027818
0.00038789
0.00018068
0.00024654
0.00016461
0.0001654
0.00066947
0.00051953
0.00018836
0.00033758
0.0013481
0.00033189
0.00026729
-0.00040715
0.0019102
0.00039731
0.00079858
-0.00013508
0.00036327
0.00037972
0.00035333
0.00041122
0.00037296
0.0060038
-0.0040417
0.00036872
0.00026925
-0.00019762
0.00064853
0.00026859
0.000318
0.00035297
0.00027317
0.00027473
0.00027651
0.00027874
0.00030652
0.00031145
0.00031634
0.00026358
0.00026273
0.00026444
0.00039424
0.00039538
0.00039602
0.00039321
0.00038512
0.0005094
7.5702e-05
0.00016308
0.00028346
0.00038971
0.00014815
0.00038561
0.00026756
0.00026721
0.00038895
0.00039156
0.00037387
0.00036383
0.00026719
0.00026784
0.00038643
0.00039519
0.00037613
0.0003813
0.00057711
0.00038406
0.00056889
-0.00079046
0.0011933
0.00029643
0.00036899
0.0028665
-0.0016241
0.00042989
0.00027059
0.00028977
0.00029501
0.00027168
0.00026175
0.0075805
-0.0054594
0.00029851
0.00037261
0.0002616
0.00019409
0.00037172
0.00037056
0.0002696
0.00038876
0.0025675
0.00051818
0.00029124
0.00026623
0.00039249
0.00032036
0.00026863
0.00026882
0.00035534
0.00046125
0.00028498
0.00039131
0.00027451
0.0003779
0.0002729
0.00026654
0.00039221
0.00038829
0.00029895
0.00036976
0.0003612
0.00032936
0.00026934
0.00038986
0.00026951
0.00030317
0.000299
0.00027518
0.00027036
0.00026444
0.0003814
0.0003783
0.00039629
0.00039197
0.00039437
0.00028119
0.00026729
0.00026267
0.00032486
0.00039037
0.00038612
-0.0003253
0.00039727
0.00028066
0.00028523
0.0003894
0.00039211
0.00036873
0.00026665
0.00039309
0.00028328
0.00032138
0.00039042
0.00043383
0.00026983
0.00026529
0.00038855
0.00039135
0.00037734
0.00026787
0.00026498
0.00026845
0.0002692
0.00038616
0.00038564
0.00039577
0.0003968
0.0003753
0.00037456
8.1314e-05
0.00021309
0.00039461
-0.0014744
-0.0012989
0.00016119
-2.7711e-05
0.00068216
0.0002516
0.0002887
0.00039959
-8.4326e-06
0.00026536
0.00038314
0.00025929
0.00026076
0.0018154
0.00038612
0.0002751
0.00038684
0.0014761
0.0004009
0.0015843
0.00088846
0.0013645
0.00043307
0.00025294
0.00040365
-0.00020588
0.00027275
0.0011699
0.00038174
0.0012047
0.0013513
-0.00022366
0.0023051
0.00038862
9.0141e-05
0.0014835
-0.00043036
0.00045844
0.00024983
0.00042047
0.00053371
0.00087339
0.00037451
0.0019193
0.0012633
0.0014325
0.0002643
0.0022268
0.001278
-0.0017764
0.00035419
0.00021967
0.00038611
0.00037426
0.0021473
0.0025747
0.0002974
0.00040574
0.00032187
0.00026948
0.0016408
0.00029343
0.00038784
0.00034808
0.0011055
0.0010444
0.00023454
0.001206
0.00037691
0.00039039
0.00039193
0.00026349
0.00027081
0.00026806
0.00039137
0.0002846
0.0003297
0.00034885
0.00029054
0.00040928
0.0020226
0.0017197
0.0010079
0.00026969
0.00026638
0.00039253
0.00038666
0.00037809
0.00037576
0.00038049
0.00038994
0.00038866
0.00039088
0.00039319
0.00026228
0.00026169
0.00027242
0.00027064
0.0022537
0.0003848
0.00029309
0.00028737
0.00032719
0.00027021
-0.0019387
0.0032024
0.00025619
0.00025574
0.00038555
0.00039163
0.00036958
0.0018276
0.00033189
0.00027153
0.00038862
0.0017103
0.00026898
0.00031891
0.00038896
0.0015743
0.00028981
0.00038898
0.0014555
0.00028749
0.0013754
0.00026567
0.0013425
0.00031997
0.00035514
0.00051383
0.00053954
0.00050905
0.00053464
0.00049865
-0.00063997
0.00056396
0.00056955
0.00044564
0.0004602
0.00042303
0.00041252
0.0003942
0.00038641
0.00039074
0.00039734
0.00058926
0.00056251
0.00057527
0.00053442
0.0003817
0.00053629
0.00055712
0.00051519
-0.00038869
0.00055061
0.00053455
0.00051539
0.00052535
0.00052064
0.00052203
0.00050774
0.00053326
0.00041848
0.00041909
0.0012327
0.00054985
0.00043572
-0.00032674
-0.00039396
0.00046855
0.00049354
0.00050454
0.0004313
0.00045199
0.00043123
0.00042222
0.00047793
0.00044286
0.00053904
0.00041575
0.00043794
0.00045347
0.00025289
0.00038977
0.00040526
0.00040807
0.00020764
0.00039823
0.0003959
0.00040106
0.00041752
0.00097686
0.00041788
-0.0002374
0.00039388
0.000273
-0.00027157
0.00040542
-0.00024742
0.00040042
0.00019231
0.00027327
0.0003844
0.00019895
0.00076617
0.00038699
0.00024721
0.00020981
0.00094512
0.00045084
0.00029456
0.00021457
-0.00022941
-0.00019643
0.00017694
0.00036234
0.00091596
0.00029778
0.00036349
0.00019061
0.00021618
-0.00033512
0.00023191
0.00019853
0.00044565
0.00020082
0.00098604
-4.3182e-05
0.00042263
-8.3813e-05
0.00015518
-0.0013607
0.00025062
0.0014664
0.00043949
0.00036135
0.00028185
0.00091898
0.00036408
0.0010193
0.00026948
0.00045021
0.00043747
-7.0127e-05
0.00012607
0.00014151
0.00027135
0.0002751
0.00019041
0.0002028
0.0002194
0.0002408
-0.00010626
0.00041532
0.00038056
0.00048819
0.00023181
0.00045601
0.00041468
0.0003132
0.00035584
0.00041411
0.00021137
9.875e-05
-5.4561e-05
0.00052742
0.00039678
0.00039471
0.00042713
0.0002756
0.00051153
0.00019645
0.00072749
0.00030358
-0.0001409
0.00029099
0.00026435
0.0011004
0.00047242
0.00055329
0.00026603
0.0003814
0.00021134
0.00022048
0.00022249
0.00042495
0.0002933
0.00010927
0.00025723
0.00014887
0.00016686
0.00035668
-0.0001059
0.00088762
0.00025756
0.00017693
0.00022689
0.00024629
0.00047207
0.00042199
0.00049556
-0.0010576
0.00025843
0.00012164
0.00011116
0.00020609
0.00014716
8.928e-05
0.00026418
0.00010077
0.000199
-0.0010968
0.00032932
9.4873e-05
0.00041943
0.00027185
0.00061574
0.00041324
7.9073e-05
0.00039684
0.00041105
0.00016943
0.00040159
0.00015962
-0.00037394
0.00036086
0.00021294
0.00040076
0.00041243
0.00025328
0.00011908
0.00018845
0.00085703
0.00043468
-2.1289e-05
0.00044403
0.00064926
1.3674e-06
0.00014452
0.00018905
0.00015286
0.00070693
0.00045709
-0.00020121
0.00035704
0.00034544
0.0002041
0.00028084
0.00025942
0.0001126
0.00022136
0.0002741
0.00026259
-0.0012217
0.00032932
0.00024809
0.00026999
0.00023028
-0.0015964
0.00045781
-0.00094807
0.00013653
0.00046843
-5.3699e-05
7.8425e-05
0.0015576
0.00031499
0.00039923
0.00017049
0.00041974
0.00041822
0.00026866
0.00034634
0.00037899
0.00043518
0.00025641
0.0003123
0.00097461
-0.00027978
0.00041054
0.00086378
0.00052759
0.00019748
0.00021253
-0.00032185
0.001123
0.00047277
0.00054122
0.00038778
0.00020465
0.00047936
6.9252e-05
-2.1439e-05
0.00042099
0.00040656
0.00039598
0.00026369
0.00040538
0.00023971
-0.00076551
0.00018928
0.00036753
0.00038591
0.0002731
0.00038686
0.00024372
0.00020377
0.000384
0.00024889
-0.0016919
0.00023382
-0.0001472
0.0048873
0.00019327
0.00045622
0.0002307
0.0003888
-0.0001121
-5.1266e-05
0.00043155
-4.3476e-05
6.1433e-05
0.00044094
0.0019602
0.00022677
0.00058012
0.0002685
0.00016408
-5.4912e-05
0.00027111
0.00060692
0.00042504
-0.0014572
0.00045103
-0.00036243
0.00015993
0.0011575
-0.00053213
0.00017534
0.0037487
-0.00091153
0.00045219
0.00039753
0.00047689
0.00042123
8.1889e-05
0.00048905
0.0011378
0.00049685
0.00026262
0.00039893
0.00027445
0.0010471
0.00012513
0.00018004
-0.0035367
0.00018016
0.0001476
0.00023599
0.00046175
0.00044274
0.00044533
0.00032534
0.00024792
0.00039808
0.00043591
0.00054587
0.00042876
-0.00088327
0.00039835
0.00045412
0.00051096
0.00026405
-4.5433e-06
0.00023913
0.00024727
0.00039699
2.7404e-05
0.00088867
0.00027485
0.00014248
0.00020088
-1.0159e-05
0.0002449
-0.00016497
0.00025223
-0.004272
-0.00026546
-0.00017651
0.00040939
-0.00029706
0.00022966
0.00059937
8.7696e-05
0.0004265
-0.00021898
0.00038712
0.00025229
0.0013457
0.00047442
0.00039211
0.0012381
0.0002558
0.00013132
0.00039502
-0.00013171
0.0002694
0.00020221
0.0026181
0.00023431
0.00020194
0.00047422
0.00046052
0.00030123
-0.00035346
0.0011891
0.0011599
-2.5375e-05
0.00031387
0.00039559
-0.00010298
0.00032795
0.00025224
0.00026348
3.1538e-05
0.00039648
0.00030825
0.0012241
-2.7194e-05
5.2971e-05
0.002121
-0.00048027
4.9289e-05
-1.13e-05
-0.00042369
0.00026874
0.0006423
-0.00048926
0.00024247
0.00040523
0.00020537
0.0004163
0.00038744
0.00038918
0.003182
0.0005827
0.00029817
0.00039921
0.00021264
4.4607e-05
0.00033305
-0.00031282
0.00030007
0.00026229
0.00032435
-0.00033283
0.00026951
0.00038667
0.00026972
4.3896e-05
0.00018703
0.00065447
0.00027474
2.6244e-05
0.00021182
0.00056214
-0.00042492
0.00039961
0.00059654
0.00037178
-0.0019917
0.00023961
0.00027393
0.0012764
0.00036525
0.00027047
0.00086293
0.00030405
0.00074503
0.00028553
-0.00043321
0.0002726
5.0007e-05
0.00069233
0.00027181
-0.00053867
2.4387e-05
0.00027343
-4.4102e-05
0.00034179
7.0239e-05
-0.00032282
-0.00014371
-0.00063057
0.00024583
0.00078855
0.00027738
-0.0001108
-0.00054968
0.0014187
0.00032109
0.00023531
-5.2531e-05
-0.00043184
0.00020736
0.00041366
-0.0041372
0.00024803
0.00027137
0.0002673
4.4356e-05
0.0040215
-0.0002716
0.0012798
-0.00047348
0.00026558
0.0003857
0.0011671
0.0013608
-0.00038911
0.00028048
0.0013468
0.00063592
-0.00019051
0.00024199
0.00049445
0.00032418
0.00039473
0.00026755
0.00025787
0.00027046
5.4611e-05
0.00034454
0.00031117
0.00027587
0.00076089
-0.0003091
0.0006341
0.00028256
-0.00027232
0.00012895
4.72e-05
7.4305e-05
-8.2564e-06
0.00026245
-0.00056443
9.3647e-05
0.00026949
0.00048457
0.00038919
4.4315e-05
0.00012115
0.00042492
0.0018982
5.9955e-05
0.00024334
-0.00047154
-0.00037579
1.0593e-05
0.00016783
4.2201e-05
-4.3001e-05
0.0033364
-5.0312e-06
0.0010603
0.00027095
-0.00050168
0.00031441
0.00021004
0.00038435
8.0396e-06
0.00019942
0.0028309
7.5959e-05
-0.00054925
0.00025245
0.00025663
0.00021336
0.00026771
0.00027067
0.00049993
0.00038757
0.00039192
0.00037374
0.00014418
0.001496
9.7332e-05
-0.00023203
0.0010016
0.00034611
-0.00016249
0.00068345
0.00076505
0.00051705
0.0013883
0.0014154
-0.0010599
0.00010154
-1.3425e-05
0.0027464
1.3242e-05
0.00037249
6.3181e-05
0.00026676
0.00093796
0.0008239
0.00036342
2.2011e-05
6.5042e-05
0.00039402
0.00020188
2.1731e-06
-0.00023431
-0.00015195
0.00066219
-2.477e-05
0.0010274
-0.00028061
0.00030744
0.00039065
0.00027596
-0.00062
0.00063262
0.00037206
0.0003727
0.00023865
0.00073121
0.00033078
-3.1177e-05
0.0010191
0.00025959
0.00039608
0.00023798
9.6278e-05
0.00064497
-0.00016538
0.00027576
0.00066457
-0.00045786
4.171e-06
0.00019149
0.00039189
0.00021399
0.00038977
0.00024253
0.00023132
-0.00080194
0.00038546
0.00016466
0.00027194
0.00022282
0.00033762
-0.00010694
0.00021664
0.00034596
0.00059537
-0.00011858
0.00027904
-0.00036305
0.00060822
0.0012347
5.4231e-06
0.00022729
0.00046929
0.00032887
0.00037244
0.00026473
0.00025017
0.00037388
0.00058284
0.00015084
0.0006782
3.3084e-05
0.00021581
0.00029698
0.00042485
0.0002127
8.4718e-05
0.00080384
2.2255e-05
0.00027746
-0.00012213
-0.00015532
1.3866e-05
0.00027108
0.00026852
0.00021878
-0.00010438
0.00014147
0.00025876
0.00074058
0.0011081
0.00029752
0.00036633
1.4151e-05
0.00063233
3.5093e-05
0.0003476
0.00027098
0.00026324
0.00010608
0.00039491
0.00029623
0.00022046
0.00025675
-0.00025352
-0.0024503
0.00034452
0.00038566
0.00027263
0.00028041
0.00011955
0.00031084
0.0006667
0.00039279
0.00039576
0.00027337
-0.00015735
7.7507e-05
0.00010514
4.4159e-05
0.00020946
-7.0174e-05
0.00026652
9.4616e-05
0.0003289
5.0959e-05
-0.00028034
5.1638e-05
0.00033073
0.00027084
1.9864e-05
2.2897e-05
-9.0649e-05
0.00027808
-8.8114e-07
0.00035286
0.00043888
0.00083844
0.00019453
0.00023479
0.00025751
0.00027467
2.2781e-05
9.2732e-05
2.6886e-05
0.00038791
0.00056866
-0.0009223
-4.1284e-05
0.00027292
0.0001346
3.3514e-05
0.00022348
0.00020479
6.9278e-05
0.00039052
0.00021465
0.00027114
1.3334e-05
0.0002719
0.00026878
-0.00043513
2.0721e-05
0.0011674
0.00012529
0.00026072
0.00038878
0.00011177
0.00061422
0.00028072
0.00037502
0.00027093
0.00070167
0.00015398
0.00011616
0.00026422
-0.00016965
0.00027137
0.00028481
0.00047764
3.0677e-06
2.4506e-05
0.00037393
0.00034177
0.0003685
0.00017466
0.00026919
0.00081081
-0.00021012
0.0002721
0.00037001
0.00061349
0.00036847
0.00010535
0.00027943
0.00024172
0.0002362
0.00066743
8.446e-05
0.00062014
0.00061065
0.00027038
3.1427e-05
0.00038704
0.00065355
0.00046398
0.0003956
0.00059645
0.00016807
0.00066515
0.00064145
0.00063577
0.00051856
0.00038145
0.00055559
0.00071949
0.00020552
-7.0824e-05
0.00074923
4.9747e-05
-0.00086773
0.0004364
-0.0003664
0.0013883
0.00045535
8.442e-05
6.6388e-05
0.00031813
7.3016e-05
0.0003707
0.00036708
0.00032388
0.00038933
0.00041572
0.00013789
0.00023363
-9.3884e-05
0.0015804
0.0044114
0.0002738
0.00022118
0.00026817
-0.0023882
0.00057275
0.00017788
-0.00023778
-0.0012445
0.00026381
0.00038947
0.00038877
0.00059711
0.00069226
0.00078678
0.00031025
0.00044754
0.00045966
0.00074973
0.00026895
-0.00060467
0.00034953
0.00035565
0.0001603
0.0002316
0.00039016
0.00032408
-9.9675e-05
0.00039366
0.00039083
0.0028779
0.00048539
0.00062672
0.00063125
6.8e-05
0.00053342
0.00068339
0.00071438
0.00060936
0.000599
0.00058435
0.0003981
0.00035903
4.515e-05
2.712e-05
0.00018918
-0.00010132
0.0005428
0.00074762
0.00026493
0.0004749
0.00079976
5.6993e-05
0.00026715
0.00042911
0.00016496
0.00027663
8.0348e-05
0.00062634
0.00010873
0.00026009
0.00027878
0.00021404
0.0003957
0.00031632
0.00044448
-0.00020601
0.00018056
0.0001593
-0.00028991
0.00064925
0.00024068
0.00039824
0.00030197
0.00035062
9.9494e-05
0.00071513
0.00033321
0.00037467
0.00039521
0.00036547
-0.0029422
0.00053179
0.00063665
0.00086001
0.00054328
0.00071995
0.00058722
0.00039221
5.4943e-05
0.00022252
0.00087643
0.00041277
0.00058275
0.00054426
0.00039111
0.00038941
7.6082e-05
0.00039003
0.00036627
0.00028112
0.00033477
0.00055806
0.00032441
0.00039342
0.00038863
0.00031151
0.00031856
0.00038862
0.00033892
5.1739e-05
0.00039889
0.00029444
0.00038803
0.00027682
0.00038469
0.00026805
0.00040324
0.00037979
-0.00014895
0.00027902
0.00056176
0.00066187
0.00048913
0.00026685
0.00056362
0.00059045
1.7168e-05
0.0001985
0.00027116
0.00027154
0.00027239
0.00027884
0.00026941
0.00020641
0.00044186
0.0004681
0.00021753
5.0316e-05
0.00043112
-9.2242e-05
0.00040108
0.00015286
0.00046779
-0.00079981
0.00036436
0.00039532
0.00034865
0.00031607
0.00068554
0.00039376
0.000278
0.00026956
0.00066994
0.00038764
0.00033181
0.00059799
0.00039529
0.00044899
0.00010004
0.00039172
0.00032793
0.0003554
-0.00020147
-4.3395e-05
0.00040199
0.00017177
0.00013227
0.00036369
0.00074867
0.00012449
-0.00016588
0.0002238
0.00026948
0.000553
8.0017e-05
0.00026978
0.00054734
0.00026486
6.8535e-05
0.00039495
0.00064063
0.00050007
0.00014957
0.00057816
0.00028019
0.00013443
-0.00085311
0.00035952
0.00040821
0.00035142
0.00012284
0.0003928
0.00016742
0.00026317
0.00030939
0.0002607
0.0004871
0.00039817
0.00053331
0.00040719
0.00040623
0.00049897
0.0002525
0.00038057
0.00030882
0.00038599
-0.00022077
0.00051176
0.00040498
0.00038724
0.00056217
0.00058111
0.00032932
0.0003928
0.00065909
0.00038717
0.00033827
0.00030446
0.00041224
0.00040739
0.00038759
0.00080236
4.8442e-05
0.00032475
0.0009492
0.00036208
0.00025297
0.000551
0.00040571
0.00020499
0.00040291
-0.00041356
0.00026132
9.8603e-05
0.00038694
0.00027663
0.00039
0.00026089
0.0003195
0.00051612
0.00038887
0.00044525
0.00040967
0.00026434
0.00050416
0.00040884
0.0003488
6.0053e-05
0.00035485
0.00066274
0.00027017
0.0001654
0.00022714
0.00035162
0.00038033
0.00041088
0.00038658
-0.0021364
0.00055163
0.00064772
0.00049479
0.00035833
0.00056538
0.00058098
0.00049395
0.00014614
0.0003929
0.00045638
0.00038851
0.00028924
0.00040444
0.0003922
0.00031306
0.00029523
0.00054585
0.00048478
0.00039318
0.00018991
0.00046472
0.0003069
0.00037257
0.00038827
6.3135e-05
0.00024552
0.00045665
0.0002675
0.00024049
0.00039069
0.00040323
0.00038223
0.00041927
0.00026565
-0.0003181
0.00026416
0.00024548
0.00041769
0.00019368
0.00051776
0.00039654
0.00026133
0.00036605
9.6309e-05
0.00043812
0.0002517
0.00043537
0.00067997
0.00047972
0.00030592
0.00092168
0.00042463
-0.0034172
0.0004607
0.00030812
0.00037346
0.00039087
0.00030926
0.00069445
0.00034166
0.00059953
-1.2677e-05
0.00047908
0.00034861
0.00043782
0.00042229
0.00019823
0.00034747
0.0001912
-0.00012604
0.00035822
0.0003018
0.00026356
0.00074263
0.00038871
0.00052868
0.00021279
8.1881e-05
0.00038106
0.00042416
0.00051955
0.00030466
0.00040595
0.00030723
0.00040313
0.00016453
-6.5284e-05
0.00012927
0.00030234
0.00082486
0.00040167
0.00029844
0.00042389
0.00041965
0.00062693
0.00039236
0.00030045
0.00035005
0.00088402
0.00024749
0.00027179
0.00057309
0.00021537
0.00029166
0.00076958
0.00021092
-2.7429e-05
0.00039149
0.00042876
0.00026983
0.00021563
0.00044469
0.00041329
0.00036185
0.00043941
0.00050803
0.00038722
0.0007028
0.00030797
0.00036918
-1.1576e-05
0.00012468
0.0003884
0.00039745
0.00017933
0.00030237
0.00030013
0.00030484
0.0003815
-0.00062072
-0.00044997
0.00042999
0.00041313
0.00039868
0.00026941
0.00044091
0.00026999
0.00020199
0.00027563
0.0004335
0.00057358
0.0002791
0.00044215
0.00031522
0.0003157
0.00041878
0.00010726
0.00040768
8.538e-05
0.00035823
0.00022351
0.0002765
0.00044065
0.00053189
0.00026847
0.00034165
0.00016793
0.00038162
0.00037676
5.2458e-05
0.00041091
0.00029053
0.00041171
0.00031244
0.00026634
0.00084965
-0.0053108
-0.0031804
0.00039419
0.00069535
0.00045067
0.0002075
0.00063037
0.00031288
0.00034808
0.0004151
0.0004774
0.00030967
0.0002373
0.00044761
0.00016085
0.00044195
0.00030615
0.00063695
0.00064447
0.00086495
0.00033312
0.00061141
0.00044569
0.00046854
0.00049111
0.00047322
0.00043143
0.00046717
0.00049055
0.00040876
0.00082418
0.0002345
0.00026718
0.00040496
0.00039783
0.00039322
0.00024909
0.0003045
0.00043047
0.00042845
0.00046765
0.00042164
0.00039749
0.00030481
0.0003211
0.00042691
0.00026184
0.00030383
0.00029092
0.00041779
0.00072361
0.00052747
0.00029815
0.00032925
0.0002869
0.00032456
-0.00082014
0.00045337
0.00042344
0.00031308
0.00029668
0.00043369
0.00048677
0.0003292
0.00046358
0.00045442
0.00018267
0.00047801
0.00022243
0.00042748
0.00031469
0.00049307
0.00030454
0.00069989
0.00045566
0.00031253
0.00037533
0.00048033
0.0012401
0.00032927
0.0004442
0.00047482
0.00021789
0.0004275
-0.00022528
0.00043896
0.00032928
0.0001392
0.00030711
0.00045679
0.00022983
0.00042765
0.00045063
0.00046333
0.00025884
0.00027139
0.00017132
0.00032917
0.00018354
0.0009364
0.00030464
0.00038717
0.00032238
0.00041133
0.00016729
0.00026703
0.00036993
0.0004487
0.00036523
0.00041197
0.00067351
0.0004003
0.00029691
0.00013854
0.00047014
0.00021151
0.00039272
0.00045242
0.00011732
0.0026661
0.0003104
0.00026168
0.00045992
0.00046443
0.0002871
0.00029888
0.00030028
0.00055989
0.00046472
0.00041446
0.00044599
-1.7261e-05
0.00028302
0.00054178
0.00025353
0.00019916
0.00038848
0.00037969
0.0003491
0.00043423
0.00044243
0.00025115
0.00058838
0.00044954
0.00026559
0.00046323
0.0008082
0.00049202
0.00049145
0.00039361
0.00026374
0.00019821
0.00025949
0.00061431
0.00079428
0.00040042
0.0004582
0.00027207
0.00056233
0.00039355
-1.6253e-05
0.00042546
0.00046764
0.00017718
0.00050584
0.00045372
0.00023108
0.00041673
0.00032932
0.00038089
0.00019167
0.00014938
0.00039512
0.00048259
0.00029826
0.00044925
0.00046173
0.00030263
0.00043526
0.00046021
0.00045245
0.0001583
0.00045528
0.00043891
0.00042849
0.0002531
0.00060764
0.00019412
0.00057318
0.00027745
0.00030688
0.00045602
0.00028769
0.00031387
0.00024455
6.868e-05
0.00050591
0.00045104
0.00042083
0.00024526
0.00031759
0.00031059
0.00030013
0.00029545
0.00038791
0.00048161
-0.00030703
0.0003293
0.00013092
0.00040394
0.00012426
0.00044525
0.00032916
0.00028843
0.00027046
0.00028582
0.00028353
0.00032928
0.00044131
0.00016931
0.00039748
-2.8688e-05
0.00028933
0.00042477
-0.00011486
0.00028608
0.00029761
0.00032924
0.00046367
0.000409
0.00032919
0.00031853
0.00047992
0.0006632
0.00045892
0.00031425
-0.00075304
0.00040273
0.00044224
-6.2543e-05
-0.0001853
0.00010671
0.0010501
0.00024971
0.00048119
0.00047106
0.00030354
0.00038812
3.6386e-05
0.00040587
0.00031428
0.00030775
0.00052909
0.00029121
0.00047457
0.00058121
0.00051192
0.00036844
0.00038901
0.00033999
0.00040641
0.00029065
0.00036105
0.00041299
0.00042307
0.00040131
0.00028448
0.00020109
0.00012482